

375 atoms
0 bonds
0 angles
0 dihedrals
0 impropers

1 atom types
0 bond types
0 angle types
0 dihedral types
0 improper types

      -13.39100        13.39100 xlo xhi
      -13.50450        13.50450 ylo yhi
      -13.09600        13.09600 zlo zhi

Atoms

     1  1     -0.18400     -0.03000     -0.12200    1  0.00000      0.44084      0.18961      0.25048      3.00000      2.70000 
     2  1     10.15800     10.41600      9.53900    2  0.00000      0.08030      0.32697     -0.42388      3.00000      2.70000 
     3  1      4.17500     10.72800     10.41700    3  0.00000     -0.29902      0.43909     -0.10400      3.00000      2.70000 
     4  1      2.58400      5.68800      4.20100    4  0.00000      0.32418     -0.30828     -0.30481      3.00000      2.70000 
     5  1      0.54700      8.28900     10.08500    5  0.00000      0.32626      0.14485      0.40695      3.00000      2.70000 
     6  1     10.63000      5.89900      9.77300    6  0.00000     -0.11916     -0.20325     -0.48737      3.00000      2.70000 
     7  1      4.76000      4.27100      5.23500    7  0.00000     -0.33773      0.34730      0.24157      3.00000      2.70000 
     8  1      2.40800      6.19300     10.48000    8  0.00000      0.09843      0.18406      0.49946      3.00000      2.70000 
     9  1      6.60100      7.24000      9.56700    9  0.00000     -0.25386     -0.05499     -0.47494      3.00000      2.70000 
    10  1      8.24900      1.07900      8.16500   10  0.00000      0.16407      0.32266     -0.40250      3.00000      2.70000 
    11  1     10.63700      9.14400      4.90100   11  0.00000     -0.42203     -0.33878      0.01217      3.00000      2.70000 
    12  1     10.62400      5.41600      1.89800   12  0.00000      0.02762     -0.52771      0.11743      3.00000      2.70000 
    13  1      6.24200      9.67000      7.68300   13  0.00000      0.39182      0.37351     -0.00254      3.00000      2.70000 
    14  1      2.94300      8.56500      5.18400   14  0.00000      0.31866      0.12771     -0.41854      3.00000      2.70000 
    15  1      0.58100     11.73600     10.99100   15  0.00000      0.09373      0.43528      0.30786      3.00000      2.70000 
    16  1      5.40900      1.90800      8.56600   16  0.00000      0.32785      0.14850      0.40435      3.00000      2.70000 
    17  1      8.52500      1.52900      3.44700   17  0.00000     -0.50867      0.18380     -0.02256      3.00000      2.70000 
    18  1      7.44700      2.45300     10.42500   18  0.00000     -0.41623      0.25816      0.23052      3.00000      2.70000 
    19  1      5.20100      7.03200      6.29400   19  0.00000     -0.18336     -0.31176     -0.40277      3.00000      2.70000 
    20  1     11.03700      5.67400      6.92400   20  0.00000      0.28151     -0.30024      0.35163      3.00000      2.70000 
    21  1      0.07300      2.26400      9.14700   21  0.00000     -0.25174      0.02057      0.47879      3.00000      2.70000 
    22  1      0.26000      6.20600      0.35700   22  0.00000      0.08336     -0.50998     -0.16126      3.00000      2.70000 
    23  1     11.62200      8.26500     11.01900   23  0.00000      0.47232     -0.23416     -0.12296      3.00000      2.70000 
    24  1      8.06000      4.94000      9.42400   24  0.00000     -0.07138     -0.45813     -0.27939      3.00000      2.70000 
    25  1      3.91000      4.82300      8.38400   25  0.00000      0.47635     -0.08830     -0.24150      3.00000      2.70000 
    26  1      8.12200      5.94200      2.41500   26  0.00000     -0.33971     -0.36024      0.21876      3.00000      2.70000 
    27  1      7.13400      8.25200      1.81300   27  0.00000      0.41062      0.35251      0.01254      3.00000      2.70000 
    28  1      1.22500      3.74500      7.30000   28  0.00000     -0.30793      0.15419      0.41766      3.00000      2.70000 
    29  1     10.89900      2.63800      4.02100   29  0.00000      0.38444      0.14841      0.35102      3.00000      2.70000 
    30  1      0.71800      8.88100      1.26000   30  0.00000      0.09680      0.16930      0.50497      3.00000      2.70000 
    31  1      7.88200     10.26800      5.38100   31  0.00000      0.23579      0.42848     -0.23203      3.00000      2.70000 
    32  1      3.78300      0.61200      5.85300   32  0.00000      0.11172     -0.52420      0.07593      3.00000      2.70000 
    33  1      2.70300     10.69800      3.38800   33  0.00000      0.00550     -0.00567      0.54127      3.00000      2.70000 
    34  1      7.61100      6.09800      5.28800   34  0.00000      0.44843     -0.01371     -0.30291      3.00000      2.70000 
    35  1      5.81400      4.40600      2.66300   35  0.00000     -0.51409      0.09674     -0.13926      3.00000      2.70000 
    36  1      4.71300     10.65900      1.13700   36  0.00000      0.33931      0.41718      0.06215      3.00000      2.70000 
    37  1      3.40800      8.09200      1.82000   37  0.00000      0.01991     -0.53747     -0.06135      3.00000      2.70000 
    38  1      6.74500     10.65600      3.11100   38  0.00000     -0.02925      0.03294     -0.53953      3.00000      2.70000 
    39  1      9.25800      9.68000      0.35900   39  0.00000      0.53496     -0.00886      0.08227      3.00000      2.70000 
    40  1      5.64100      6.72900      0.05700   40  0.00000     -0.01599      0.00077      0.54109      3.00000      2.70000 
    41  1      4.43900      3.82900      0.04500   41  0.00000     -0.10377      0.11654      0.51835      3.00000      2.70000 
    42  1      7.65800      2.77300      1.03000   42  0.00000      0.40419     -0.14916      0.32775      3.00000      2.70000 
    43  1      0.99800      9.30100      7.42700   43  0.00000      0.45937      0.20790      0.19696      3.00000      2.70000 
    44  1      0.21200      6.51100      3.36900   44  0.00000      0.24411     -0.15646      0.45712      3.00000      2.70000 
    45  1      2.75500      5.56800      1.27900   45  0.00000     -0.02600      0.39675     -0.36735      3.00000      2.70000 
    46  1      2.09200      0.87200     10.22100   46  0.00000      0.09186     -0.19466     -0.49669      3.00000      2.70000 
    47  1      1.82700      1.66100      3.91200   47  0.00000     -0.40047      0.21434     -0.29448      3.00000      2.70000 
    48  1      8.36800      3.77500      6.90300   48  0.00000      0.19342      0.25380      0.43728      3.00000      2.70000 
    49  1      4.20000      2.18800      2.45300   49  0.00000      0.08134     -0.43480      0.31203      3.00000      2.70000 
    50  1      6.39300      1.92500      5.50700   50  0.00000     -0.34639     -0.20410     -0.36248      3.00000      2.70000 
    51  1     10.15800     10.41600     -9.23500   51  0.00000      0.15697      0.49984     -0.13620      3.00000      2.70000 
    52  1      4.17500     10.72800     -8.35800   52  0.00000      0.26687     -0.43543     -0.17949      3.00000      2.70000 
    53  1      0.54700      8.28900     -8.68900   53  0.00000     -0.11498      0.18662     -0.49496      3.00000      2.70000 
    54  1      1.79000      3.69700     -6.90200   54  0.00000      0.05700     -0.53828     -0.00582      3.00000      2.70000 
    55  1     10.63000      5.89900     -9.00100   55  0.00000      0.28971      0.44921     -0.08551      3.00000      2.70000 
    56  1      2.40800      6.19300     -8.29400   56  0.00000      0.22947     -0.04486      0.48823      3.00000      2.70000 
    57  1      6.60100      7.24000     -9.20700   57  0.00000      0.31101      0.22197     -0.38346      3.00000      2.70000 
    58  1      4.88400      1.88000     -4.94100   58  0.00000     -0.45792     -0.24872      0.14658      3.00000      2.70000 
    59  1      4.56600      3.59100     -6.93400   59  0.00000     -0.07767     -0.15310     -0.51338      3.00000      2.70000 
    60  1      8.24900      1.07900    -10.60900   60  0.00000      0.27744     -0.37809      0.27038      3.00000      2.70000 
    61  1      6.24200      9.67000    -11.09100   61  0.00000      0.02977     -0.09492     -0.53211      3.00000      2.70000 
    62  1      4.95500      6.44500     -7.31100   62  0.00000     -0.10243      0.38656      0.36485      3.00000      2.70000 
    63  1      4.63000      9.96700     -3.70100   63  0.00000      0.23226      0.43398     -0.22528      3.00000      2.70000 
    64  1      0.58100     11.73600     -7.78400   64  0.00000      0.27673      0.12587      0.44789      3.00000      2.70000 
    65  1      5.40900      1.90800    -10.20800   65  0.00000     -0.52261     -0.10359      0.09583      3.00000      2.70000 
    66  1      9.69600      4.77500     -4.60500   66  0.00000     -0.17835      0.23886      0.45185      3.00000      2.70000 
    67  1      7.44700      2.45300     -8.34900   67  0.00000      0.00471     -0.34153      0.41996      3.00000      2.70000 
    68  1      7.64100      7.93000     -1.81400   68  0.00000      0.28227     -0.09044     -0.45296      3.00000      2.70000 
    69  1      2.77200      4.34200     -3.66100   69  0.00000     -0.02420     -0.44739     -0.30379      3.00000      2.70000 
    70  1      9.34600      4.42500     -0.59100   70  0.00000     -0.40983     -0.19153     -0.29730      3.00000      2.70000 
    71  1      0.07300      2.26400     -9.62800   71  0.00000     -0.41882     -0.32659     -0.10471      3.00000      2.70000 
    72  1     11.62200      8.26500     -7.75500   72  0.00000      0.32368      0.11837     -0.41743      3.00000      2.70000 
    73  1      8.06000      4.94000     -9.35000   73  0.00000     -0.43603     -0.20751      0.24465      3.00000      2.70000 
    74  1      3.91000      4.82300    -10.39100   74  0.00000     -0.31142      0.38977      0.21007      3.00000      2.70000 
    75  1      8.36100      9.00100     -7.60400   75  0.00000      0.01684      0.47251      0.26360      3.00000      2.70000 
    76  1      6.15100      8.04100     -5.28500   76  0.00000      0.35044      0.34518     -0.22600      3.00000      2.70000 
    77  1     10.82000     11.31500     -3.00900   77  0.00000     -0.41654      0.30449      0.16376      3.00000      2.70000 
    78  1      2.20700      8.88200     -4.13800   78  0.00000      0.13981      0.46997      0.22938      3.00000      2.70000 
    79  1      5.40900      9.34000     -1.25400   79  0.00000     -0.33197      0.34731     -0.24941      3.00000      2.70000 
    80  1      0.78200      2.37100     -3.46100   80  0.00000     -0.02738     -0.52327     -0.13592      3.00000      2.70000 
    81  1      9.23600      7.51700     -5.48700   81  0.00000      0.13377     -0.08342     -0.51786      3.00000      2.70000 
    82  1      0.93500      9.91300     -1.71900   82  0.00000      0.30135     -0.39169      0.22091      3.00000      2.70000 
    83  1      7.98900     11.32000     -2.18500   83  0.00000      0.30448     -0.24653     -0.37356      3.00000      2.70000 
    84  1      2.96700      8.05600     -0.82400   84  0.00000     -0.32016     -0.38378     -0.20796      3.00000      2.70000 
    85  1      4.90800      6.63500     -2.85600   85  0.00000     -0.07483      0.03426      0.53503      3.00000      2.70000 
    86  1      5.39500      3.60200     -2.77700   86  0.00000     -0.46090      0.09043      0.26912      3.00000      2.70000 
    87  1      8.16100      2.15900     -5.74400   87  0.00000      0.48173     -0.05930      0.23969      3.00000      2.70000 
    88  1     10.90400      8.78600     -3.73900   88  0.00000      0.18887     -0.38516     -0.33018      3.00000      2.70000 
    89  1      7.67100      5.32800     -2.48100   89  0.00000     -0.15059     -0.22134      0.47049      3.00000      2.70000 
    90  1      2.03600      9.68700     -6.80700   90  0.00000      0.37805      0.37715     -0.08873      3.00000      2.70000 
    91  1      1.58800      6.59800     -2.90200   91  0.00000      0.11107      0.52145     -0.09376      3.00000      2.70000 
    92  1      2.09200      0.87200     -8.55300   92  0.00000      0.41048      0.30681      0.17438      3.00000      2.70000 
    93  1      1.84500      1.02800     -5.81100   93  0.00000     -0.13606      0.13895      0.50519      3.00000      2.70000 
    94  1      9.35700      2.21900     -2.28900   94  0.00000      0.47208     -0.24974     -0.08833      3.00000      2.70000 
    95  1      2.51700      0.55600     -2.53600   95  0.00000     -0.15257     -0.05674      0.51627      3.00000      2.70000 
    96  1     10.48300      1.35600     -7.38300   96  0.00000      0.20795      0.49548     -0.06552      3.00000      2.70000 
    97  1      6.51900      1.20300     -0.83200   97  0.00000      0.27696     -0.16023      0.43664      3.00000      2.70000 
    98  1     10.15800     -8.35800      9.53900   98  0.00000     -0.06576     -0.53726      0.00814      3.00000      2.70000 
    99  1      4.17500     -8.04600     10.41700   99  0.00000      0.06831     -0.35336     -0.40436      3.00000      2.70000 
   100  1      4.15500     -4.01200     10.61300  100  0.00000     -0.05543     -0.43585      0.31622      3.00000      2.70000 
   101  1      0.54700    -10.48600     10.08500  101  0.00000      0.46376      0.19440      0.20042      3.00000      2.70000 
   102  1     10.40500     -1.66700      7.94000  102  0.00000     -0.23834     -0.48099     -0.06986      3.00000      2.70000 
   103  1      9.59900     -5.68300      9.54600  103  0.00000      0.04703     -0.25238      0.47658      3.00000      2.70000 
   104  1      0.64000     -6.09700      2.70700  104  0.00000     -0.54045      0.02974      0.00785      3.00000      2.70000 
   105  1     10.63700     -9.63100      4.90100  105  0.00000      0.02804      0.10908      0.52948      3.00000      2.70000 
   106  1      6.24200     -9.10400      7.68300  106  0.00000     -0.29515      0.09250     -0.44426      3.00000      2.70000 
   107  1      6.71100     -5.41700      9.84700  107  0.00000      0.13451     -0.51199      0.11317      3.00000      2.70000 
   108  1     10.95300     -3.89000      6.38000  108  0.00000     -0.54012      0.03440     -0.01084      3.00000      2.70000 
   109  1      2.94300    -10.21000      5.18400  109  0.00000     -0.48338      0.07421      0.23209      3.00000      2.70000 
   110  1      0.58100     -7.03800     10.99100  110  0.00000      0.13741      0.51960      0.06459      3.00000      2.70000 
   111  1      1.82600     -5.33800      7.40100  111  0.00000      0.13339      0.11703      0.51141      3.00000      2.70000 
   112  1      6.09800     -1.12300      5.51400  112  0.00000      0.47540     -0.10296     -0.23755      3.00000      2.70000 
   113  1     11.62200    -10.50900     11.01900  113  0.00000      0.14271     -0.50662     -0.12652      3.00000      2.70000 
   114  1      7.13400    -10.52300      1.81300  114  0.00000     -0.18289      0.48773      0.14733      3.00000      2.70000 
   115  1      4.67900     -6.52700      4.08600  115  0.00000      0.34741      0.24257     -0.33689      3.00000      2.70000 
   116  1      4.72300     -6.85900      7.72400  116  0.00000     -0.33541     -0.18385     -0.38306      3.00000      2.70000 
   117  1      9.61000     -5.59200      2.99600  117  0.00000      0.10087      0.22669     -0.48111      3.00000      2.70000 
   118  1      8.57900     -5.51100      5.76800  118  0.00000      0.19129      0.47201      0.18344      3.00000      2.70000 
   119  1      0.71800     -9.89400      1.26000  119  0.00000      0.01503      0.45139     -0.29842      3.00000      2.70000 
   120  1      7.88200     -8.50600      5.38100  120  0.00000     -0.00344     -0.08305     -0.53491      3.00000      2.70000 
   121  1      7.10200     -3.29800      2.64300  121  0.00000     -0.39850     -0.00971     -0.36625      3.00000      2.70000 
   122  1      2.70300     -8.07600      3.38800  122  0.00000     -0.31821     -0.11843      0.42161      3.00000      2.70000 
   123  1     10.08800     -3.23500      1.30600  123  0.00000     -0.25500     -0.33306     -0.34216      3.00000      2.70000 
   124  1      8.73000     -0.71600      6.00000  124  0.00000      0.33495     -0.40276      0.13646      3.00000      2.70000 
   125  1      4.71300     -8.11500      1.13700  125  0.00000      0.30081      0.44120      0.08882      3.00000      2.70000 
   126  1      3.40800    -10.68300      1.82000  126  0.00000      0.33071     -0.02070     -0.42806      3.00000      2.70000 
   127  1      4.20900     -0.53300      8.92300  127  0.00000      0.17336     -0.17992     -0.48022      3.00000      2.70000 
   128  1      1.09400     -4.46600      4.79800  128  0.00000      0.36152      0.38503      0.11872      3.00000      2.70000 
   129  1      7.32000     -1.36000      0.74600  129  0.00000      0.08590      0.51948     -0.12568      3.00000      2.70000 
   130  1      7.83700     -6.14000      0.61000  130  0.00000     -0.14252      0.44867      0.26724      3.00000      2.70000 
   131  1     11.07800     -7.07800      1.21400  131  0.00000      0.14252     -0.40565      0.32889      3.00000      2.70000 
   132  1      6.74500     -8.11900      3.11100  132  0.00000      0.12071      0.15057      0.50576      3.00000      2.70000 
   133  1      9.25800     -9.09500      0.35900  133  0.00000      0.41129     -0.31937      0.14792      3.00000      2.70000 
   134  1      9.82300     -1.01400      2.64900  134  0.00000      0.41923     -0.34220     -0.01329      3.00000      2.70000 
   135  1      3.46200     -5.64100      0.87800  135  0.00000      0.48968     -0.21245      0.09005      3.00000      2.70000 
   136  1      0.67700     -2.85200      8.33000  136  0.00000     -0.14919     -0.51117      0.09738      3.00000      2.70000 
   137  1      5.27300     -4.52100      5.99000  137  0.00000      0.10135      0.15778     -0.50781      3.00000      2.70000 
   138  1      0.99800     -9.47300      7.42700  138  0.00000      0.09111      0.52644     -0.08712      3.00000      2.70000 
   139  1      6.52600     -2.04800      9.98500  139  0.00000     -0.06215     -0.09985      0.52839      3.00000      2.70000 
   140  1      9.26500     -1.15700     10.81100  140  0.00000      0.13878      0.30299      0.42658      3.00000      2.70000 
   141  1      1.20400     -0.94500      6.40900  141  0.00000      0.18685      0.41855      0.28799      3.00000      2.70000 
   142  1      2.81100     -2.25200      3.85400  142  0.00000      0.22518      0.47607     -0.12525      3.00000      2.70000 
   143  1      5.41000     -0.30300      2.72900  143  0.00000      0.49690     -0.16581     -0.13651      3.00000      2.70000 
   144  1      4.57100     -4.18700      2.73400  144  0.00000     -0.07797      0.50203     -0.18686      3.00000      2.70000 
   145  1     10.15800     -8.35800     -9.23500  145  0.00000     -0.28528     -0.45375      0.07591      3.00000      2.70000 
   146  1      4.17500     -8.04600     -8.35800  146  0.00000     -0.07876     -0.22637     -0.48537      3.00000      2.70000 
   147  1      4.15500     -4.01200     -8.16200  147  0.00000      0.10207      0.25653      0.46563      3.00000      2.70000 
   148  1      0.54700    -10.48600     -8.68900  148  0.00000     -0.16369      0.49860      0.13279      3.00000      2.70000 
   149  1     10.40500     -1.66700    -10.83500  149  0.00000     -0.30602     -0.44447      0.04274      3.00000      2.70000 
   150  1      9.59900     -5.68300     -9.22800  150  0.00000      0.13647      0.01644     -0.52358      3.00000      2.70000 
   151  1      6.13500     -7.25500     -6.76300  151  0.00000      0.28391      0.27315      0.37124      3.00000      2.70000 
   152  1      5.34700     -5.28700     -4.94800  152  0.00000     -0.42299     -0.30274     -0.14986      3.00000      2.70000 
   153  1      6.24200     -9.10400    -11.09100  153  0.00000      0.49025     -0.06399      0.22045      3.00000      2.70000 
   154  1      6.71100     -5.41700     -8.92700  154  0.00000      0.26719      0.31111     -0.35334      3.00000      2.70000 
   155  1      5.80200     -5.67900     -2.27600  155  0.00000     -0.42638     -0.16657     -0.28895      3.00000      2.70000 
   156  1      4.63000     -8.80800     -3.70100  156  0.00000      0.43479     -0.31787     -0.05434      3.00000      2.70000 
   157  1      6.42800     -2.86600     -1.49200  157  0.00000     -0.51410      0.15697     -0.06397      3.00000      2.70000 
   158  1      0.58100     -7.03800     -7.78400  158  0.00000      0.00479      0.25987     -0.47485      3.00000      2.70000 
   159  1      0.63700     -5.99700     -5.24400  159  0.00000      0.02327      0.13789      0.52295      3.00000      2.70000 
   160  1      7.64100    -10.84400     -1.81400  160  0.00000     -0.12163      0.33092      0.41077      3.00000      2.70000 
   161  1     11.62200    -10.50900     -7.75500  161  0.00000      0.42042      0.00206      0.34100      3.00000      2.70000 
   162  1      2.21100     -6.62100     -3.08500  162  0.00000      0.17299     -0.23880     -0.45396      3.00000      2.70000 
   163  1      8.36100     -9.77400     -7.60400  163  0.00000     -0.19113     -0.26374      0.43237      3.00000      2.70000 
   164  1      6.15100    -10.73300     -5.28500  164  0.00000      0.00154     -0.38342     -0.38213      3.00000      2.70000 
   165  1     10.82000     -7.45900     -3.00900  165  0.00000      0.00945      0.49833     -0.21122      3.00000      2.70000 
   166  1      4.72300     -6.85900    -11.05100  166  0.00000      0.36256      0.40084     -0.03017      3.00000      2.70000 
   167  1      2.20700     -9.89300     -4.13800  167  0.00000     -0.34216     -0.22407     -0.35462      3.00000      2.70000 
   168  1      5.40900     -9.43400     -1.25400  168  0.00000      0.20467     -0.40471     -0.29556      3.00000      2.70000 
   169  1     10.75100     -4.63700     -3.25900  169  0.00000     -0.35542     -0.18779      0.36255      3.00000      2.70000 
   170  1     10.18500     -2.99600     -6.16500  170  0.00000     -0.06843      0.06252      0.53333      3.00000      2.70000 
   171  1      1.06900     -2.41500     -2.47400  171  0.00000     -0.01054      0.02397      0.54069      3.00000      2.70000 
   172  1      9.06100     -4.14400     -1.07400  172  0.00000      0.44528     -0.23703      0.19641      3.00000      2.70000 
   173  1      4.20900     -0.53300     -9.85100  173  0.00000      0.37913     -0.30977      0.23095      3.00000      2.70000 
   174  1      3.21500     -1.34800     -0.66200  174  0.00000      0.08421      0.03214     -0.53377      3.00000      2.70000 
   175  1      0.93500     -8.86100     -1.71900  175  0.00000     -0.10250     -0.51163     -0.14410      3.00000      2.70000 
   176  1      7.98900     -7.45400     -2.18500  176  0.00000     -0.32745      0.37094      0.21958      3.00000      2.70000 
   177  1      2.96700    -10.71800     -0.82400  177  0.00000      0.37509     -0.06944      0.38408      3.00000      2.70000 
   178  1      8.56700     -7.72000     -5.12300  178  0.00000     -0.12673     -0.47224      0.23230      3.00000      2.70000 
   179  1     10.90400     -9.98800     -3.73900  179  0.00000      0.39006     -0.35802     -0.11271      3.00000      2.70000 
   180  1      6.41800     -1.41500     -4.00700  180  0.00000      0.53457      0.05566      0.06460      3.00000      2.70000 
   181  1      9.27400     -0.17900     -3.74800  181  0.00000     -0.42780      0.09577     -0.31757      3.00000      2.70000 
   182  1      0.67700     -2.85200    -10.44500  182  0.00000      0.03503     -0.22058      0.49310      3.00000      2.70000 
   183  1      1.16600     -1.98500     -7.70700  183  0.00000      0.26338     -0.38419      0.27579      3.00000      2.70000 
   184  1      2.03600     -9.08800     -6.80700  184  0.00000      0.27868     -0.44774      0.12205      3.00000      2.70000 
   185  1      3.45100     -4.57400     -1.64500  185  0.00000      0.47912     -0.21446     -0.13222      3.00000      2.70000 
   186  1      7.15200     -3.01800     -6.04400  186  0.00000      0.08447     -0.33374      0.41775      3.00000      2.70000 
   187  1      3.29000     -1.62800     -4.52600  187  0.00000      0.25780      0.46955     -0.07804      3.00000      2.70000 
   188  1      2.92100     -4.26200     -5.57500  188  0.00000     -0.49996     -0.20207     -0.04730      3.00000      2.70000 
   189  1      6.52600     -2.04800     -8.79000  189  0.00000      0.52545     -0.12515      0.03563      3.00000      2.70000 
   190  1      9.26500     -1.15700     -7.96300  190  0.00000      0.38363     -0.32395      0.20229      3.00000      2.70000 
   191  1      9.33300     -0.23500     -0.59600  191  0.00000     -0.22037     -0.42971     -0.24458      3.00000      2.70000 
   192  1     -6.74800      8.63800      7.65800  192  0.00000      0.37500      0.17700      0.34797      3.00000      2.70000 
   193  1     -8.61600     10.41600      9.53900  193  0.00000     -0.02172      0.35631     -0.40694      3.00000      2.70000 
   194  1     -8.14500      5.89900      9.77300  194  0.00000      0.40202     -0.36004     -0.04222      3.00000      2.70000 
   195  1     -4.36200      3.39400      6.70600  195  0.00000     -0.16337     -0.02160     -0.51563      3.00000      2.70000 
   196  1     -4.12600      5.33400      9.47900  196  0.00000      0.06013      0.26556      0.46787      3.00000      2.70000 
   197  1     -1.05800      4.77900      9.87000  197  0.00000     -0.17038      0.48315     -0.17483      3.00000      2.70000 
   198  1    -10.52600      1.07900      8.16500  198  0.00000     -0.01103     -0.50604      0.19191      3.00000      2.70000 
   199  1     -8.13800      9.14400      4.90100  199  0.00000     -0.39207     -0.36207     -0.09066      3.00000      2.70000 
   200  1     -8.15100      5.41600      1.89800  200  0.00000      0.19018     -0.35197      0.36467      3.00000      2.70000 
   201  1     -4.10800     10.70600      5.40500  201  0.00000      0.19173      0.23379      0.44901      3.00000      2.70000 
   202  1     -5.93100      9.94500      2.41200  202  0.00000      0.46898      0.17046     -0.20984      3.00000      2.70000 
   203  1    -10.24900      1.52900      3.44700  203  0.00000     -0.16362     -0.43464      0.27811      3.00000      2.70000 
   204  1    -11.32700      2.45300     10.42500  204  0.00000      0.39227      0.28430     -0.24152      3.00000      2.70000 
   205  1     -6.34400      7.03800      4.89300  205  0.00000     -0.17605      0.38796      0.33396      3.00000      2.70000 
   206  1     -7.73700      5.67400      6.92400  206  0.00000     -0.24563      0.22434      0.42705      3.00000      2.70000 
   207  1     -7.15200      8.26500     11.01900  207  0.00000     -0.41101      0.33583      0.10639      3.00000      2.70000 
   208  1    -10.71400      4.94000      9.42400  208  0.00000      0.03459      0.41190     -0.34954      3.00000      2.70000 
   209  1    -10.65200      5.94200      2.41500  209  0.00000      0.10771     -0.52479      0.07762      3.00000      2.70000 
   210  1     -6.68900      3.71800     10.43100  210  0.00000      0.41005     -0.31699      0.15624      3.00000      2.70000 
   211  1     -3.33600     11.24400      9.87800  211  0.00000     -0.16787     -0.19173     -0.47759      3.00000      2.70000 
   212  1     -7.87500      2.63800      4.02100  212  0.00000      0.07952      0.36148      0.39503      3.00000      2.70000 
   213  1     -5.16100      7.01000      2.31800  213  0.00000      0.49913     -0.13356     -0.16144      3.00000      2.70000 
   214  1     -2.88900      8.32100      1.78600  214  0.00000     -0.45786     -0.28878      0.00172      3.00000      2.70000 
   215  1    -10.89300     10.26800      5.38100  215  0.00000      0.09326      0.48372     -0.22440      3.00000      2.70000 
   216  1     -3.13200      3.81900      3.87200  216  0.00000     -0.52429      0.13448     -0.00833      3.00000      2.70000 
   217  1    -11.16400      6.09800      5.28800  217  0.00000     -0.53813      0.05533      0.01971      3.00000      2.70000 
   218  1     -7.13200      2.82300      6.72800  218  0.00000      0.10373      0.32389      0.42116      3.00000      2.70000 
   219  1     -4.03900      8.97700      7.57600  219  0.00000     -0.49920      0.10143      0.18314      3.00000      2.70000 
   220  1     -9.51600      9.68000      0.35900  220  0.00000     -0.32745      0.10735      0.41748      3.00000      2.70000 
   221  1     -5.65400      1.54000      2.58600  221  0.00000     -0.17907     -0.07681      0.50504      3.00000      2.70000 
   222  1    -11.11600      2.77300      1.03000  222  0.00000     -0.49518     -0.05390      0.21195      3.00000      2.70000 
   223  1     -1.27600     10.77800      3.19600  223  0.00000      0.25103      0.39666     -0.26960      3.00000      2.70000 
   224  1     -4.82700      4.09600      1.64900  224  0.00000     -0.11375      0.52922     -0.00398      3.00000      2.70000 
   225  1     -1.32800      9.00800      5.34600  225  0.00000     -0.15307     -0.45890      0.24292      3.00000      2.70000 
   226  1     -2.05300      7.23400      8.64700  226  0.00000      0.33100     -0.13978     -0.40489      3.00000      2.70000 
   227  1     -2.56300      6.49100      4.58600  227  0.00000      0.25968      0.15882      0.44763      3.00000      2.70000 
   228  1     -1.13400      5.12700      7.12000  228  0.00000     -0.13341     -0.17031      0.49622      3.00000      2.70000 
   229  1     -0.17100      3.72900      2.98600  229  0.00000      0.00698      0.47984     -0.25047      3.00000      2.70000 
   230  1     -3.73900      2.05900      9.43600  230  0.00000      0.21340      0.49749      0.00122      3.00000      2.70000 